{"data":[{"Abundance":{"Crust Abundance":0.0015,"Human Abundance":0.1,"Solar Abundance":0.75,"Meteorite Abundance":0.024,"Ocean Abundance":0.11,"Universe Abundance":0.75},"Atomic Number":1,"Atomic Weight":1.008,"Density":0.0899,"Boiling Point":-252.87,"Melting Point":-259.14},{"Abundance":{"Crust Abundance":5.5e-9,"Human Abundance":"Unknown","Solar Abundance":0.23,"Meteorite Abundance":"Unknown","Ocean Abundance":7.2e-12,"Universe Abundance":0.23},"Atomic Number":2,"Atomic Weight":4.002602,"Density":0.1785,"Boiling Point":-268.93,"Melting Point":"Unknown"},{"Abundance":{"Crust Abundance":0.000017,"Human Abundance":3e-8,"Solar Abundance":6e-11,"Meteorite Abundance":0.0000017,"Ocean Abundance":1.8e-7,"Universe Abundance":6e-9},"Atomic Number":3,"Atomic Weight":6.94,"Density":535,"Boiling Point":1342,"Melting Point":180.54},{"Abundance":{"Crust Abundance":0.0000019,"Human Abundance":4e-10,"Solar Abundance":1e-10,"Meteorite Abundance":2.9e-8,"Ocean Abundance":6e-13,"Universe Abundance":1e-9},"Atomic Number":4,"Atomic Weight":9.0121831,"Density":1848,"Boiling Point":2470,"Melting Point":1287},{"Abundance":{"Crust Abundance":0.0000086,"Human Abundance":7e-7,"Solar Abundance":2e-9,"Meteorite Abundance":0.0000016,"Ocean Abundance":0.0000044,"Universe Abundance":1e-9},"Atomic Number":5,"Atomic Weight":10.81,"Density":2460,"Boiling Point":4000,"Melting Point":2075},{"Abundance":{"Crust Abundance":0.0018,"Human Abundance":0.23,"Solar Abundance":0.003,"Meteorite Abundance":0.015,"Ocean Abundance":0.000028,"Universe Abundance":0.005},"Atomic Number":6,"Atomic Weight":12.011,"Density":2260,"Boiling Point":4027,"Melting Point":3550},{"Abundance":{"Crust Abundance":0.00002,"Human Abundance":0.026,"Solar Abundance":0.001,"Meteorite Abundance":0.0014,"Ocean Abundance":5e-7,"Universe Abundance":0.001},"Atomic Number":7,"Atomic Weight":14.007,"Density":1.251,"Boiling Point":-195.79,"Melting Point":-210.1},{"Abundance":{"Crust Abundance":0.46,"Human Abundance":0.61,"Solar Abundance":0.009,"Meteorite Abundance":0.4,"Ocean Abundance":0.86,"Universe Abundance":0.01},"Atomic Number":8,"Atomic Weight":15.999,"Density":1.429,"Boiling Point":-182.9,"Melting Point":-218.3},{"Abundance":{"Crust Abundance":0.00054,"Human Abundance":0.000037,"Solar Abundance":5e-7,"Meteorite Abundance":0.000087,"Ocean Abundance":0.0000013,"Universe Abundance":4e-7},"Atomic Number":9,"Atomic Weight":18.998403163,"Density":1.696,"Boiling Point":-188.12,"Melting Point":-219.6},{"Abundance":{"Crust Abundance":3e-9,"Human Abundance":"Unknown","Solar Abundance":0.001,"Meteorite Abundance":"Unknown","Ocean Abundance":1.2e-10,"Universe Abundance":0.0013},"Atomic Number":10,"Atomic Weight":20.1797,"Density":0.9,"Boiling Point":-246.08,"Melting Point":-248.59},{"Abundance":{"Crust Abundance":0.023,"Human Abundance":0.0014,"Solar Abundance":0.00004,"Meteorite Abundance":0.0055,"Ocean Abundance":0.011,"Universe Abundance":0.00002},"Atomic Number":11,"Atomic Weight":22.98976928,"Density":968,"Boiling Point":883,"Melting Point":97.72},{"Abundance":{"Crust Abundance":0.029,"Human Abundance":0.00027,"Solar Abundance":0.0007,"Meteorite Abundance":0.12,"Ocean Abundance":0.0013,"Universe Abundance":0.00059},"Atomic Number":12,"Atomic Weight":24.305,"Density":1738,"Boiling Point":1090,"Melting Point":650},{"Abundance":{"Crust Abundance":0.081,"Human Abundance":9e-7,"Solar Abundance":0.00006,"Meteorite Abundance":0.009,"Ocean Abundance":5e-9,"Universe Abundance":0.00005},"Atomic Number":13,"Atomic Weight":26.9815385,"Density":2700,"Boiling Point":2519,"Melting Point":660.32},{"Abundance":{"Crust Abundance":0.27,"Human Abundance":0.00026,"Solar Abundance":0.0009,"Meteorite Abundance":0.14,"Ocean Abundance":0.000001,"Universe Abundance":0.0007},"Atomic Number":14,"Atomic Weight":28.085,"Density":2330,"Boiling Point":2900,"Melting Point":1414},{"Abundance":{"Crust Abundance":0.00099,"Human Abundance":0.011,"Solar Abundance":0.000007,"Meteorite Abundance":0.0011,"Ocean Abundance":7e-8,"Universe Abundance":0.000007},"Atomic Number":15,"Atomic Weight":30.973761998,"Density":1823,"Boiling Point":280.5,"Melting Point":44.2},{"Abundance":{"Crust Abundance":0.00042,"Human Abundance":0.002,"Solar Abundance":0.0004,"Meteorite Abundance":0.04,"Ocean Abundance":0.00093,"Universe Abundance":0.0005},"Atomic Number":16,"Atomic Weight":32.06,"Density":1960,"Boiling Point":444.72,"Melting Point":115.21},{"Abundance":{"Crust Abundance":0.00017,"Human Abundance":0.0012,"Solar Abundance":0.000008,"Meteorite Abundance":0.00037,"Ocean Abundance":0.02,"Universe Abundance":0.000001},"Atomic Number":17,"Atomic Weight":35.45,"Density":3.214,"Boiling Point":-34.04,"Melting Point":-101.5},{"Abundance":{"Crust Abundance":0.0000015,"Human Abundance":"Unknown","Solar Abundance":0.00007,"Meteorite Abundance":"Unknown","Ocean Abundance":4.5e-7,"Universe Abundance":0.0002},"Atomic Number":18,"Atomic Weight":39.948,"Density":1.784,"Boiling Point":-185.8,"Melting Point":-189.3},{"Abundance":{"Crust Abundance":0.015,"Human Abundance":0.002,"Solar Abundance":0.000004,"Meteorite Abundance":0.0007,"Ocean Abundance":0.00042,"Universe Abundance":0.000003},"Atomic Number":19,"Atomic Weight":39.0983,"Density":856,"Boiling Point":759,"Melting Point":63.38},{"Abundance":{"Crust Abundance":0.05,"Human Abundance":0.014,"Solar Abundance":0.00007,"Meteorite Abundance":0.011,"Ocean Abundance":0.0000042,"Universe Abundance":0.00007},"Atomic Number":20,"Atomic Weight":40.078,"Density":1550,"Boiling Point":1484,"Melting Point":842},{"Abundance":{"Crust Abundance":0.000026,"Human Abundance":"Unknown","Solar Abundance":4e-8,"Meteorite Abundance":0.0000064,"Ocean Abundance":1.5e-12,"Universe Abundance":3e-8},"Atomic Number":21,"Atomic Weight":44.955908,"Density":2985,"Boiling Point":2830,"Melting Point":1541},{"Abundance":{"Crust Abundance":0.0066,"Human Abundance":"Unknown","Solar Abundance":0.000004,"Meteorite Abundance":0.00054,"Ocean Abundance":1e-9,"Universe Abundance":0.000003},"Atomic Number":22,"Atomic Weight":47.867,"Density":4507,"Boiling Point":3287,"Melting Point":1668},{"Abundance":{"Crust Abundance":0.00019,"Human Abundance":3e-8,"Solar Abundance":4e-7,"Meteorite Abundance":0.000061,"Ocean Abundance":1.5e-9,"Universe Abundance":0.000001},"Atomic Number":23,"Atomic Weight":50.9415,"Density":6110,"Boiling Point":3407,"Melting Point":1910},{"Abundance":{"Crust Abundance":0.00014,"Human Abundance":3e-8,"Solar Abundance":0.00002,"Meteorite Abundance":0.003,"Ocean Abundance":6e-10,"Universe Abundance":0.000015},"Atomic Number":24,"Atomic Weight":51.9961,"Density":7190,"Boiling Point":2671,"Melting Point":1907},{"Abundance":{"Crust Abundance":0.0011,"Human Abundance":2e-7,"Solar Abundance":0.00001,"Meteorite Abundance":0.0027,"Ocean Abundance":2e-9,"Universe Abundance":0.000008},"Atomic Number":25,"Atomic Weight":54.938044,"Density":7470,"Boiling Point":2061,"Melting Point":1246},{"Abundance":{"Crust Abundance":0.063,"Human Abundance":0.00006,"Solar Abundance":0.001,"Meteorite Abundance":0.22,"Ocean Abundance":3e-9,"Universe Abundance":0.0011},"Atomic Number":26,"Atomic Weight":55.845,"Density":7874,"Boiling Point":2861,"Melting Point":1538},{"Abundance":{"Crust Abundance":0.00003,"Human Abundance":2e-8,"Solar Abundance":0.000004,"Meteorite Abundance":0.00059,"Ocean Abundance":8e-11,"Universe Abundance":0.000003},"Atomic Number":27,"Atomic Weight":58.933194,"Density":8900,"Boiling Point":2927,"Melting Point":1495},{"Abundance":{"Crust Abundance":0.00009,"Human Abundance":1e-7,"Solar Abundance":0.00008,"Meteorite Abundance":0.013,"Ocean Abundance":2e-9,"Universe Abundance":0.00006},"Atomic Number":28,"Atomic Weight":58.6934,"Density":8908,"Boiling Point":2913,"Melting Point":1455},{"Abundance":{"Crust Abundance":0.000068,"Human Abundance":0.000001,"Solar Abundance":7e-7,"Meteorite Abundance":0.00011,"Ocean Abundance":3e-9,"Universe Abundance":6e-8},"Atomic Number":29,"Atomic Weight":63.546,"Density":8960,"Boiling Point":2562,"Melting Point":1084.62},{"Abundance":{"Crust Abundance":0.000078,"Human Abundance":0.000033,"Solar Abundance":0.000002,"Meteorite Abundance":0.00018,"Ocean Abundance":5e-9,"Universe Abundance":3e-7},"Atomic Number":30,"Atomic Weight":65.38,"Density":7140,"Boiling Point":907,"Melting Point":419.53},{"Abundance":{"Crust Abundance":0.000019,"Human Abundance":"Unknown","Solar Abundance":4e-8,"Meteorite Abundance":0.0000076,"Ocean Abundance":3e-11,"Universe Abundance":1e-8},"Atomic Number":31,"Atomic Weight":69.723,"Density":5904,"Boiling Point":2204,"Melting Point":29.76},{"Abundance":{"Crust Abundance":0.0000014,"Human Abundance":"Unknown","Solar Abundance":2e-7,"Meteorite Abundance":0.000021,"Ocean Abundance":6e-11,"Universe Abundance":2e-7},"Atomic Number":32,"Atomic Weight":72.63,"Density":5323,"Boiling Point":2820,"Melting Point":938.3},{"Abundance":{"Crust Abundance":0.0000021,"Human Abundance":5e-8,"Solar Abundance":"Unknown","Meteorite Abundance":0.0000018,"Ocean Abundance":2.3e-9,"Universe Abundance":8e-9},"Atomic Number":33,"Atomic Weight":74.921595,"Density":5727,"Boiling Point":614,"Melting Point":817},{"Abundance":{"Crust Abundance":5e-8,"Human Abundance":5e-8,"Solar Abundance":"Unknown","Meteorite Abundance":0.000013,"Ocean Abundance":4.5e-10,"Universe Abundance":3e-8},"Atomic Number":34,"Atomic Weight":78.971,"Density":4819,"Boiling Point":685,"Melting Point":221},{"Abundance":{"Crust Abundance":0.000003,"Human Abundance":0.0000029,"Solar Abundance":"Unknown","Meteorite Abundance":0.0000012,"Ocean Abundance":0.000066,"Universe Abundance":7e-9},"Atomic Number":35,"Atomic Weight":79.904,"Density":3120,"Boiling Point":59,"Melting Point":-7.3},{"Abundance":{"Crust Abundance":1.5e-10,"Human Abundance":"Unknown","Solar Abundance":"Unknown","Meteorite Abundance":"Unknown","Ocean Abundance":2.1e-10,"Universe Abundance":4e-8},"Atomic Number":36,"Atomic Weight":83.798,"Density":3.75,"Boiling Point":-153.22,"Melting Point":-157.36},{"Abundance":{"Crust Abundance":0.00006,"Human Abundance":0.0000046,"Solar Abundance":3e-8,"Meteorite Abundance":0.0000032,"Ocean Abundance":1.2e-7,"Universe Abundance":1e-8},"Atomic Number":37,"Atomic Weight":85.4678,"Density":1532,"Boiling Point":688,"Melting Point":39.31},{"Abundance":{"Crust Abundance":0.00036,"Human Abundance":0.0000046,"Solar Abundance":5e-8,"Meteorite Abundance":0.0000086,"Ocean Abundance":0.000008,"Universe Abundance":4e-8},"Atomic Number":38,"Atomic Weight":87.62,"Density":2630,"Boiling Point":1382,"Melting Point":777},{"Abundance":{"Crust Abundance":0.000029,"Human Abundance":"Unknown","Solar Abundance":9.9e-9,"Meteorite Abundance":0.0000019,"Ocean Abundance":1.3e-11,"Universe Abundance":7e-9},"Atomic Number":39,"Atomic Weight":88.90584,"Density":4472,"Boiling Point":3345,"Melting Point":1526},{"Abundance":{"Crust Abundance":0.00013,"Human Abundance":5e-8,"Solar Abundance":4e-8,"Meteorite Abundance":0.0000066,"Ocean Abundance":2.6e-11,"Universe Abundance":5e-8},"Atomic Number":40,"Atomic Weight":91.224,"Density":6511,"Boiling Point":4409,"Melting Point":1855},{"Abundance":{"Crust Abundance":0.000017,"Human Abundance":"Unknown","Solar Abundance":4e-9,"Meteorite Abundance":1.9e-7,"Ocean Abundance":1e-12,"Universe Abundance":2e-9},"Atomic Number":41,"Atomic Weight":92.90637,"Density":8570,"Boiling Point":4744,"Melting Point":2477},{"Abundance":{"Crust Abundance":0.0000011,"Human Abundance":1e-7,"Solar Abundance":9e-9,"Meteorite Abundance":0.0000012,"Ocean Abundance":9.9e-9,"Universe Abundance":5e-9},"Atomic Number":42,"Atomic Weight":95.95,"Density":10280,"Boiling Point":4639,"Melting Point":2623},{"Abundance":{"Crust Abundance":0,"Human Abundance":0,"Solar Abundance":0,"Meteorite Abundance":0,"Ocean Abundance":0,"Universe Abundance":"Unknown"},"Atomic Number":43,"Atomic Weight":97,"Density":11500,"Boiling Point":4265,"Melting Point":2157},{"Abundance":{"Crust Abundance":1e-9,"Human Abundance":"Unknown","Solar Abundance":5e-9,"Meteorite Abundance":8.1e-7,"Ocean Abundance":7e-13,"Universe Abundance":4e-9},"Atomic Number":44,"Atomic Weight":101.07,"Density":12370,"Boiling Point":4150,"Melting Point":2334},{"Abundance":{"Crust Abundance":7e-10,"Human Abundance":"Unknown","Solar Abundance":2e-9,"Meteorite Abundance":1.8e-7,"Ocean Abundance":"Unknown","Universe Abundance":6e-10},"Atomic Number":45,"Atomic Weight":102.9055,"Density":12450,"Boiling Point":3695,"Melting Point":1964},{"Abundance":{"Crust Abundance":6.3e-9,"Human Abundance":"Unknown","Solar Abundance":3e-9,"Meteorite Abundance":6.5e-7,"Ocean Abundance":"Unknown","Universe Abundance":2e-9},"Atomic Number":46,"Atomic Weight":106.42,"Density":12023,"Boiling Point":2963,"Melting Point":1554.9},{"Abundance":{"Crust Abundance":7.9e-8,"Human Abundance":"Unknown","Solar Abundance":1e-9,"Meteorite Abundance":1.4e-7,"Ocean Abundance":1e-10,"Universe Abundance":6e-10},"Atomic Number":47,"Atomic Weight":107.8682,"Density":10490,"Boiling Point":2162,"Melting Point":961.78},{"Abundance":{"Crust Abundance":1.5e-7,"Human Abundance":7e-7,"Solar Abundance":6e-9,"Meteorite Abundance":4.4e-7,"Ocean Abundance":5e-11,"Universe Abundance":2e-9},"Atomic Number":48,"Atomic Weight":112.414,"Density":8650,"Boiling Point":767,"Melting Point":321.07},{"Abundance":{"Crust Abundance":1.6e-7,"Human Abundance":"Unknown","Solar Abundance":4e-9,"Meteorite Abundance":4.4e-8,"Ocean Abundance":1e-13,"Universe Abundance":3e-10},"Atomic Number":49,"Atomic Weight":114.818,"Density":7310,"Boiling Point":2072,"Melting Point":156.6},{"Abundance":{"Crust Abundance":0.0000022,"Human Abundance":2e-7,"Solar Abundance":9e-9,"Meteorite Abundance":0.0000012,"Ocean Abundance":9.9e-12,"Universe Abundance":4e-9},"Atomic Number":50,"Atomic Weight":118.71,"Density":7310,"Boiling Point":2602,"Melting Point":231.93},{"Abundance":{"Crust Abundance":2e-7,"Human Abundance":"Unknown","Solar Abundance":1e-9,"Meteorite Abundance":1.2e-7,"Ocean Abundance":2e-10,"Universe Abundance":4e-10},"Atomic Number":51,"Atomic Weight":121.76,"Density":6697,"Boiling Point":1587,"Melting Point":630.63},{"Abundance":{"Crust Abundance":1e-9,"Human Abundance":"Unknown","Solar Abundance":"Unknown","Meteorite Abundance":0.0000021,"Ocean Abundance":"Unknown","Universe Abundance":9e-9},"Atomic Number":52,"Atomic Weight":127.6,"Density":6240,"Boiling Point":988,"Melting Point":449.51},{"Abundance":{"Crust Abundance":4.9e-7,"Human Abundance":2e-7,"Solar Abundance":"Unknown","Meteorite Abundance":2.5e-7,"Ocean Abundance":6e-8,"Universe Abundance":1e-9},"Atomic Number":53,"Atomic Weight":126.90447,"Density":4940,"Boiling Point":184.3,"Melting Point":113.7},{"Abundance":{"Crust Abundance":2e-11,"Human Abundance":"Unknown","Solar Abundance":"Unknown","Meteorite Abundance":"Unknown","Ocean Abundance":5e-12,"Universe Abundance":1e-8},"Atomic Number":54,"Atomic Weight":131.293,"Density":5.9,"Boiling Point":-108,"Melting Point":-111.8},{"Abundance":{"Crust Abundance":0.0000019,"Human Abundance":2e-8,"Solar Abundance":8e-9,"Meteorite Abundance":1.4e-7,"Ocean Abundance":5e-10,"Universe Abundance":8e-10},"Atomic Number":55,"Atomic Weight":132.90545196,"Density":1879,"Boiling Point":671,"Melting Point":28.44},{"Abundance":{"Crust Abundance":0.00034,"Human Abundance":3e-7,"Solar Abundance":9.9e-9,"Meteorite Abundance":0.0000027,"Ocean Abundance":3e-8,"Universe Abundance":1e-8},"Atomic Number":56,"Atomic Weight":137.327,"Density":3510,"Boiling Point":1870,"Melting Point":727},{"Abundance":{"Crust Abundance":"lanthanites case","Human Abundance":"lanthanites case","Solar Abundance":"lanthanites case","Meteorite Abundance":"lanthanites case","Ocean Abundance":"lanthanites case","Universe Abundance":"lanthanites case"},"Atomic Number":"lanthanites case","Atomic Weight":"lanthanites case","Density":"lanthanites case","Boiling Point":"lanthanites case","Melting Point":"lanthanites case"},{"Abundance":{"Crust Abundance":0.000034,"Human Abundance":"Unknown","Solar Abundance":2e-9,"Meteorite Abundance":2.8e-7,"Ocean Abundance":3.4e-12,"Universe Abundance":2e-9},"Atomic Number":57,"Atomic Weight":138.90547,"Density":6146,"Boiling Point":3464,"Melting Point":919},{"Abundance":{"Crust Abundance":0.00006,"Human Abundance":"Unknown","Solar Abundance":4e-9,"Meteorite Abundance":7.5e-7,"Ocean Abundance":1.2e-12,"Universe Abundance":1e-8},"Atomic Number":58,"Atomic Weight":140.116,"Density":6689,"Boiling Point":3360,"Melting Point":798},{"Abundance":{"Crust Abundance":0.0000086,"Human Abundance":"Unknown","Solar Abundance":1e-9,"Meteorite Abundance":9.9e-8,"Ocean Abundance":6e-13,"Universe Abundance":2e-9},"Atomic Number":59,"Atomic Weight":140.90766,"Density":6640,"Boiling Point":3290,"Melting Point":931},{"Abundance":{"Crust Abundance":0.000033,"Human Abundance":"Unknown","Solar Abundance":3e-9,"Meteorite Abundance":5e-7,"Ocean Abundance":2.8e-12,"Universe Abundance":1e-8},"Atomic Number":60,"Atomic Weight":144.242,"Density":7010,"Boiling Point":3100,"Melting Point":1021},{"Abundance":{"Crust Abundance":0,"Human Abundance":0,"Solar Abundance":0,"Meteorite Abundance":0,"Ocean Abundance":0,"Universe Abundance":"Unknown"},"Atomic Number":61,"Atomic Weight":145,"Density":7264,"Boiling Point":3000,"Melting Point":1100},{"Abundance":{"Crust Abundance":0.000006,"Human Abundance":"Unknown","Solar Abundance":1e-9,"Meteorite Abundance":1.7e-7,"Ocean Abundance":4.5e-13,"Universe Abundance":5e-9},"Atomic Number":62,"Atomic Weight":150.36,"Density":7353,"Boiling Point":1803,"Melting Point":1072},{"Abundance":{"Crust Abundance":0.0000018,"Human Abundance":"Unknown","Solar Abundance":5e-10,"Meteorite Abundance":5.9e-8,"Ocean Abundance":1.3e-13,"Universe Abundance":5e-10},"Atomic Number":63,"Atomic Weight":151.964,"Density":5244,"Boiling Point":1527,"Melting Point":822},{"Abundance":{"Crust Abundance":0.0000052,"Human Abundance":"Unknown","Solar Abundance":2e-9,"Meteorite Abundance":2.3e-7,"Ocean Abundance":7e-13,"Universe Abundance":2e-9},"Atomic Number":64,"Atomic Weight":157.25,"Density":7901,"Boiling Point":3250,"Melting Point":1313},{"Abundance":{"Crust Abundance":9.3e-7,"Human Abundance":"Unknown","Solar Abundance":1e-10,"Meteorite Abundance":3.9e-8,"Ocean Abundance":1.4e-13,"Universe Abundance":5e-10},"Atomic Number":65,"Atomic Weight":158.92535,"Density":8219,"Boiling Point":3230,"Melting Point":1356},{"Abundance":{"Crust Abundance":0.0000062,"Human Abundance":"Unknown","Solar Abundance":2e-9,"Meteorite Abundance":2.7e-7,"Ocean Abundance":9.1e-13,"Universe Abundance":2e-9},"Atomic Number":66,"Atomic Weight":162.5,"Density":8551,"Boiling Point":2567,"Melting Point":1412},{"Abundance":{"Crust Abundance":0.0000012,"Human Abundance":"Unknown","Solar Abundance":0,"Meteorite Abundance":5.9e-8,"Ocean Abundance":2.2e-13,"Universe Abundance":5e-10},"Atomic Number":67,"Atomic Weight":164.93033,"Density":8795,"Boiling Point":2700,"Melting Point":1474},{"Abundance":{"Crust Abundance":0.000003,"Human Abundance":"Unknown","Solar Abundance":1e-9,"Meteorite Abundance":1.8e-7,"Ocean Abundance":9e-13,"Universe Abundance":2e-9},"Atomic Number":68,"Atomic Weight":167.259,"Density":9066,"Boiling Point":2868,"Melting Point":1497},{"Abundance":{"Crust Abundance":4.5e-7,"Human Abundance":"Unknown","Solar Abundance":2e-10,"Meteorite Abundance":2.9e-8,"Ocean Abundance":2e-13,"Universe Abundance":1e-10},"Atomic Number":69,"Atomic Weight":168.93422,"Density":9320,"Boiling Point":1950,"Melting Point":1545},{"Abundance":{"Crust Abundance":0.0000028,"Human Abundance":"Unknown","Solar Abundance":1e-9,"Meteorite Abundance":1.8e-7,"Ocean Abundance":8e-13,"Universe Abundance":2e-9},"Atomic Number":70,"Atomic Weight":173.045,"Density":6570,"Boiling Point":1196,"Melting Point":819},{"Abundance":{"Crust Abundance":5.7e-7,"Human Abundance":"Unknown","Solar Abundance":1e-9,"Meteorite Abundance":2.9e-8,"Ocean Abundance":1.5e-13,"Universe Abundance":1e-10},"Atomic Number":71,"Atomic Weight":174.9668,"Density":9841,"Boiling Point":3402,"Melting Point":1663},{"Abundance":{"Crust Abundance":0.0000033,"Human Abundance":"Unknown","Solar Abundance":1e-9,"Meteorite Abundance":1.7e-7,"Ocean Abundance":8e-12,"Universe Abundance":7e-10},"Atomic Number":72,"Atomic Weight":178.49,"Density":13310,"Boiling Point":4603,"Melting Point":2233},{"Abundance":{"Crust Abundance":0.0000017,"Human Abundance":"Unknown","Solar Abundance":"Unknown","Meteorite Abundance":2e-8,"Ocean Abundance":2e-12,"Universe Abundance":8e-11},"Atomic Number":73,"Atomic Weight":180.94788,"Density":16650,"Boiling Point":5458,"Melting Point":3017},{"Abundance":{"Crust Abundance":0.0000011,"Human Abundance":"Unknown","Solar Abundance":4e-9,"Meteorite Abundance":1.2e-7,"Ocean Abundance":1.2e-10,"Universe Abundance":5e-10},"Atomic Number":74,"Atomic Weight":183.84,"Density":19250,"Boiling Point":5555,"Melting Point":3422},{"Abundance":{"Crust Abundance":2.6e-9,"Human Abundance":"Unknown","Solar Abundance":1e-10,"Meteorite Abundance":4.9e-8,"Ocean Abundance":1e-12,"Universe Abundance":2e-10},"Atomic Number":75,"Atomic Weight":186.207,"Density":21020,"Boiling Point":5596,"Melting Point":3186},{"Abundance":{"Crust Abundance":1.8e-9,"Human Abundance":"Unknown","Solar Abundance":2e-9,"Meteorite Abundance":6.5e-7,"Ocean Abundance":"Unknown","Universe Abundance":3e-9},"Atomic Number":76,"Atomic Weight":190.23,"Density":22590,"Boiling Point":5012,"Melting Point":3033},{"Abundance":{"Crust Abundance":4e-10,"Human Abundance":"Unknown","Solar Abundance":2e-9,"Meteorite Abundance":5.4e-7,"Ocean Abundance":"Unknown","Universe Abundance":2e-9},"Atomic Number":77,"Atomic Weight":192.217,"Density":22560,"Boiling Point":4428,"Melting Point":2466},{"Abundance":{"Crust Abundance":3.7e-8,"Human Abundance":"Unknown","Solar Abundance":9e-9,"Meteorite Abundance":9.8e-7,"Ocean Abundance":"Unknown","Universe Abundance":5e-9},"Atomic Number":78,"Atomic Weight":195.084,"Density":21450,"Boiling Point":3825,"Melting Point":1768.3},{"Abundance":{"Crust Abundance":3.1e-9,"Human Abundance":1e-7,"Solar Abundance":1e-9,"Meteorite Abundance":1.7e-7,"Ocean Abundance":5e-11,"Universe Abundance":6e-10},"Atomic Number":79,"Atomic Weight":196.966569,"Density":19300,"Boiling Point":2856,"Melting Point":1064.18},{"Abundance":{"Crust Abundance":6.7e-8,"Human Abundance":"Unknown","Solar Abundance":2e-8,"Meteorite Abundance":2.5e-7,"Ocean Abundance":5e-11,"Universe Abundance":1e-9},"Atomic Number":80,"Atomic Weight":200.592,"Density":13534,"Boiling Point":356.73,"Melting Point":-38.83},{"Abundance":{"Crust Abundance":5.4e-7,"Human Abundance":"Unknown","Solar Abundance":1e-9,"Meteorite Abundance":7.9e-8,"Ocean Abundance":1e-12,"Universe Abundance":5e-10},"Atomic Number":81,"Atomic Weight":204.38,"Density":11850,"Boiling Point":1473,"Melting Point":304},{"Abundance":{"Crust Abundance":0.00001,"Human Abundance":0.0000017,"Solar Abundance":9.9e-9,"Meteorite Abundance":0.0000014,"Ocean Abundance":3e-11,"Universe Abundance":1e-8},"Atomic Number":82,"Atomic Weight":207.2,"Density":11340,"Boiling Point":1749,"Melting Point":327.46},{"Abundance":{"Crust Abundance":2.5e-8,"Human Abundance":"Unknown","Solar Abundance":9.9e-9,"Meteorite Abundance":6.9e-8,"Ocean Abundance":2e-11,"Universe Abundance":7e-10},"Atomic Number":83,"Atomic Weight":208.9804,"Density":9780,"Boiling Point":1564,"Melting Point":271.3},{"Abundance":{"Crust Abundance":"Unknown","Human Abundance":0,"Solar Abundance":"Unknown","Meteorite Abundance":"Unknown","Ocean Abundance":2e-20,"Universe Abundance":"Unknown"},"Atomic Number":84,"Atomic Weight":209,"Density":9196,"Boiling Point":962,"Melting Point":254},{"Abundance":{"Crust Abundance":0,"Human Abundance":0,"Solar Abundance":"Unknown","Meteorite Abundance":0,"Ocean Abundance":0,"Universe Abundance":"Unknown"},"Atomic Number":85,"Atomic Weight":210,"Density":"Unknown","Boiling Point":"Unknown","Melting Point":302},{"Abundance":{"Crust Abundance":"Unknown","Human Abundance":"Unknown","Solar Abundance":"Unknown","Meteorite Abundance":"Unknown","Ocean Abundance":6e-22,"Universe Abundance":"Unknown"},"Atomic Number":86,"Atomic Weight":222,"Density":9.73,"Boiling Point":-61.7,"Melting Point":-71},{"Abundance":{"Crust Abundance":"Unknown","Human Abundance":0,"Solar Abundance":"Unknown","Meteorite Abundance":"Unknown","Ocean Abundance":"Unknown","Universe Abundance":"Unknown"},"Atomic Number":87,"Atomic Weight":223,"Density":"Unknown","Boiling Point":"Unknown","Melting Point":"Unknown"},{"Abundance":{"Crust Abundance":1e-13,"Human Abundance":1e-15,"Solar Abundance":"Unknown","Meteorite Abundance":"Unknown","Ocean Abundance":1e-17,"Universe Abundance":"Unknown"},"Atomic Number":88,"Atomic Weight":226,"Density":5000,"Boiling Point":1737,"Melting Point":700},{"Abundance":{"Crust Abundance":"actinides case","Human Abundance":"actinides case","Solar Abundance":"actinides case","Meteorite Abundance":"actinides case","Ocean Abundance":"actinides case","Universe Abundance":"actinides case"},"Atomic Number":"actinides case","Atomic Weight":"actinides case","Density":"actinides case","Boiling Point":"actinides case","Melting Point":"actinides case"},{"Abundance":{"Crust Abundance":"Unknown","Human Abundance":0,"Solar Abundance":0,"Meteorite Abundance":"Unknown","Ocean Abundance":"Unknown","Universe Abundance":"Unknown"},"Atomic Number":89,"Atomic Weight":227,"Density":10070,"Boiling Point":3200,"Melting Point":1050},{"Abundance":{"Crust Abundance":0.000006,"Human Abundance":0,"Solar Abundance":3e-10,"Meteorite Abundance":3.9e-8,"Ocean Abundance":4e-14,"Universe Abundance":4e-10},"Atomic Number":90,"Atomic Weight":232.0377,"Density":11724,"Boiling Point":4820,"Melting Point":1750},{"Abundance":{"Crust Abundance":9.9e-15,"Human Abundance":0,"Solar Abundance":"Unknown","Meteorite Abundance":"Unknown","Ocean Abundance":2e-25,"Universe Abundance":"Unknown"},"Atomic Number":91,"Atomic Weight":231.03588,"Density":15370,"Boiling Point":4000,"Melting Point":1572},{"Abundance":{"Crust Abundance":0.0000018,"Human Abundance":1e-9,"Solar Abundance":1e-9,"Meteorite Abundance":9.8e-9,"Ocean Abundance":3.3e-9,"Universe Abundance":2e-10},"Atomic Number":92,"Atomic Weight":238.02891,"Density":19050,"Boiling Point":3927,"Melting Point":1135},{"Abundance":{"Crust Abundance":0,"Human Abundance":0,"Solar Abundance":0,"Meteorite Abundance":0,"Ocean Abundance":0,"Universe Abundance":"Unknown"},"Atomic Number":93,"Atomic Weight":237,"Density":20450,"Boiling Point":4000,"Melting Point":644},{"Abundance":{"Crust Abundance":0,"Human Abundance":0,"Solar Abundance":0,"Meteorite Abundance":0,"Ocean Abundance":0,"Universe Abundance":"Unknown"},"Atomic Number":94,"Atomic Weight":244,"Density":19816,"Boiling Point":3230,"Melting Point":640},{"Abundance":{"Crust Abundance":0,"Human Abundance":0,"Solar Abundance":0,"Meteorite Abundance":0,"Ocean Abundance":0,"Universe Abundance":"Unknown"},"Atomic Number":95,"Atomic Weight":243,"Density":13670,"Boiling Point":2011,"Melting Point":1176},{"Abundance":{"Crust Abundance":0,"Human Abundance":0,"Solar Abundance":0,"Meteorite Abundance":0,"Ocean Abundance":0,"Universe Abundance":"Unknown"},"Atomic Number":96,"Atomic Weight":247,"Density":13510,"Boiling Point":3110,"Melting Point":1345},{"Abundance":{"Crust Abundance":0,"Human Abundance":0,"Solar Abundance":0,"Meteorite Abundance":0,"Ocean Abundance":0,"Universe Abundance":"Unknown"},"Atomic Number":97,"Atomic Weight":247,"Density":14780,"Boiling Point":"Unknown","Melting Point":1050},{"Abundance":{"Crust Abundance":0,"Human Abundance":0,"Solar Abundance":0,"Meteorite Abundance":0,"Ocean Abundance":0,"Universe Abundance":"Unknown"},"Atomic Number":98,"Atomic Weight":251,"Density":15100,"Boiling Point":"Unknown","Melting Point":900},{"Abundance":{"Crust Abundance":0,"Human Abundance":0,"Solar Abundance":0,"Meteorite Abundance":0,"Ocean Abundance":0,"Universe Abundance":"Unknown"},"Atomic Number":99,"Atomic Weight":252,"Density":"Unknown","Boiling Point":"Unknown","Melting Point":860},{"Abundance":{"Crust Abundance":0,"Human Abundance":0,"Solar Abundance":0,"Meteorite Abundance":0,"Ocean Abundance":0,"Universe Abundance":"Unknown"},"Atomic Number":100,"Atomic Weight":257,"Density":"Unknown","Boiling Point":"Unknown","Melting Point":1527},{"Abundance":{"Crust Abundance":0,"Human Abundance":0,"Solar Abundance":0,"Meteorite Abundance":0,"Ocean Abundance":0,"Universe Abundance":"Unknown"},"Atomic Number":101,"Atomic Weight":258,"Density":"Unknown","Boiling Point":"Unknown","Melting Point":828},{"Abundance":{"Crust Abundance":0,"Human Abundance":0,"Solar Abundance":0,"Meteorite Abundance":0,"Ocean Abundance":0,"Universe Abundance":"Unknown"},"Atomic Number":102,"Atomic Weight":259,"Density":"Unknown","Boiling Point":"Unknown","Melting Point":828},{"Abundance":{"Crust Abundance":0,"Human Abundance":0,"Solar Abundance":0,"Meteorite Abundance":0,"Ocean Abundance":0,"Universe Abundance":"Unknown"},"Atomic Number":103,"Atomic Weight":262,"Density":"Unknown","Boiling Point":"Unknown","Melting Point":1627},{"Abundance":{"Crust Abundance":0,"Human Abundance":0,"Solar Abundance":0,"Meteorite Abundance":0,"Ocean Abundance":0,"Universe Abundance":"Unknown"},"Atomic Number":104,"Atomic Weight":267,"Density":"Unknown","Boiling Point":"Unknown","Melting Point":"Unknown"},{"Abundance":{"Crust Abundance":0,"Human Abundance":0,"Solar Abundance":0,"Meteorite Abundance":0,"Ocean Abundance":0,"Universe Abundance":"Unknown"},"Atomic Number":105,"Atomic Weight":270,"Density":"Unknown","Boiling Point":"Unknown","Melting Point":"Unknown"},{"Abundance":{"Crust Abundance":0,"Human Abundance":0,"Solar Abundance":0,"Meteorite Abundance":0,"Ocean Abundance":0,"Universe Abundance":"Unknown"},"Atomic Number":106,"Atomic Weight":269,"Density":"Unknown","Boiling Point":"Unknown","Melting Point":"Unknown"},{"Abundance":{"Crust Abundance":0,"Human Abundance":0,"Solar Abundance":0,"Meteorite Abundance":0,"Ocean Abundance":0,"Universe Abundance":"Unknown"},"Atomic Number":107,"Atomic Weight":270,"Density":"Unknown","Boiling Point":"Unknown","Melting Point":"Unknown"},{"Abundance":{"Crust Abundance":0,"Human Abundance":0,"Solar Abundance":0,"Meteorite Abundance":0,"Ocean Abundance":0,"Universe Abundance":"Unknown"},"Atomic Number":108,"Atomic Weight":270,"Density":"Unknown","Boiling Point":"Unknown","Melting Point":"Unknown"},{"Abundance":{"Crust Abundance":0,"Human Abundance":0,"Solar Abundance":0,"Meteorite Abundance":0,"Ocean Abundance":0,"Universe Abundance":"Unknown"},"Atomic Number":109,"Atomic Weight":278,"Density":"Unknown","Boiling Point":"Unknown","Melting Point":"Unknown"},{"Abundance":{"Crust Abundance":0,"Human Abundance":0,"Solar Abundance":0,"Meteorite Abundance":0,"Ocean Abundance":0,"Universe Abundance":"Unknown"},"Atomic Number":110,"Atomic Weight":281,"Density":"Unknown","Boiling Point":"Unknown","Melting Point":"Unknown"},{"Abundance":{"Crust Abundance":0,"Human Abundance":0,"Solar Abundance":0,"Meteorite Abundance":0,"Ocean Abundance":0,"Universe Abundance":"Unknown"},"Atomic Number":111,"Atomic Weight":281,"Density":"Unknown","Boiling Point":"Unknown","Melting Point":"Unknown"},{"Abundance":{"Crust Abundance":0,"Human Abundance":0,"Solar Abundance":0,"Meteorite Abundance":0,"Ocean Abundance":0,"Universe Abundance":"Unknown"},"Atomic Number":112,"Atomic Weight":285,"Density":"Unknown","Boiling Point":"Unknown","Melting Point":"Unknown"},{"Abundance":{"Crust Abundance":0,"Human Abundance":0,"Solar Abundance":0,"Meteorite Abundance":0,"Ocean Abundance":0,"Universe Abundance":"Unknown"},"Atomic Number":113,"Atomic Weight":286,"Density":"Unknown","Boiling Point":"Unknown","Melting Point":"Unknown"},{"Abundance":{"Crust Abundance":0,"Human Abundance":0,"Solar Abundance":0,"Meteorite Abundance":0,"Ocean Abundance":0,"Universe Abundance":"Unknown"},"Atomic Number":114,"Atomic Weight":289,"Density":"Unknown","Boiling Point":"Unknown","Melting Point":"Unknown"},{"Abundance":{"Crust Abundance":0,"Human Abundance":0,"Solar Abundance":0,"Meteorite Abundance":0,"Ocean Abundance":0,"Universe Abundance":"Unknown"},"Atomic Number":115,"Atomic Weight":289,"Density":"Unknown","Boiling Point":"Unknown","Melting Point":"Unknown"},{"Abundance":{"Crust Abundance":0,"Human Abundance":0,"Solar Abundance":0,"Meteorite Abundance":0,"Ocean Abundance":0,"Universe Abundance":"Unknown"},"Atomic Number":116,"Atomic Weight":293,"Density":"Unknown","Boiling Point":"Unknown","Melting Point":"Unknown"},{"Abundance":{"Crust Abundance":0,"Human Abundance":0,"Solar Abundance":0,"Meteorite Abundance":0,"Ocean Abundance":0,"Universe Abundance":"Unknown"},"Atomic Number":117,"Atomic Weight":293,"Density":"Unknown","Boiling Point":"Unknown","Melting Point":"Unknown"},{"Abundance":{"Crust Abundance":0,"Human Abundance":0,"Solar Abundance":0,"Meteorite Abundance":0,"Ocean Abundance":0,"Universe Abundance":"Unknown"},"Atomic Number":118,"Atomic Weight":294,"Density":"Unknown","Boiling Point":"Unknown","Melting Point":"Unknown"}]}